/*--------------------------------*- C++ -*----------------------------------*\
| =========                 |                                                 |
| \\      /  F ield         | OpenFOAM: The Open Source CFD Toolbox           |
|  \\    /   O peration     | Version:  v1812                                 |
|   \\  /    A nd           | Web:      www.OpenFOAM.com                      |
|    \\/     M anipulation  |                                                 |
\*---------------------------------------------------------------------------*/
FoamFile
{
    version     2.0;
    format      ascii;
    class       volVectorField;
    location    "0";
    object      UData;
}
// * * * * * * * * * * * * * * * * * * * * * * * * * * * * * * * * * * * * * //

dimensions      [0 1 -1 0 0 0 0];

internalField   nonuniform List<vector> 
3500
(
(0.001938900362454894 -1.09291138890157e-05 9.975407269440042e-20)
(0.001950374088929808 -0.000272567421734815 6.074807821033633e-19)
(0.0007845923825563899 -0.0003528113527903084 -1.147803735024461e-19)
(-8.166239834977196e-05 3.10534719275024e-05 -5.137378844827662e-19)
(-0.0001901264166758443 0.0001431474977192166 6.679788316479386e-20)
(-0.0001664635339621496 0.0001362858851051716 -9.775703605540931e-20)
(-0.0001796221825539274 0.0001442248586783319 6.100188378677342e-20)
(-0.0001836898000519062 0.0001434362899148566 3.236231605378908e-20)
(-0.0001988050247153025 0.0001521298941400556 6.027126815208976e-20)
(-0.0002096926343890466 0.0001587138505675985 -1.071146459885423e-20)
(-0.0002289842249584276 0.0001664690469783599 1.085284480237133e-20)
(-0.0002537552542057888 0.0001674446365948369 -8.15004743329913e-20)
(-0.0002871643732528578 0.0001583679454551373 -3.388990515873587e-20)
(-0.0003245933398662274 0.000135439758876155 -5.067618217216548e-20)
(-0.0003584674834123869 9.797651402747797e-05 -3.710076488271409e-21)
(-0.0003887314423775874 4.723139783066691e-05 9.375437180648245e-20)
(-0.0004392714193428079 3.029606207512711e-06 -7.409742756061099e-21)
(-0.0004748538744680438 5.920604375967606e-07 -5.922891510299411e-21)
(-0.0004637524006854912 5.906457869129678e-07 -1.591428174878101e-20)
(-0.0004330387548078539 5.662301536102493e-07 2.090012564097147e-20)
(-0.0003888167262201819 5.314720415293471e-07 1.304275693578974e-19)
(-0.0003360734716927316 4.908916535210096e-07 1.599597514590912e-19)
(-0.0002780677246070684 4.481208698622355e-07 1.084203463789108e-19)
(-0.0002172159510100388 4.056130762557608e-07 4.283578545643472e-20)
(-0.0001553719344664057 3.645700661219895e-07 1.098923178427262e-20)
(-9.386097121823871e-05 3.258364134412203e-07 -7.895387343580497e-20)
(-3.367795093326741e-05 2.896777517828901e-07 -5.45114437719051e-20)
(2.449577455277648e-05 2.560818869489723e-07 1.409834289553154e-19)
(8.018524653318256e-05 2.25033500071384e-07 -1.104899975397954e-19)
(0.000133084435079729 1.965559624087602e-07 -3.340653475809427e-20)
(0.0001830008845650063 1.704745498244548e-07 -9.693774399098662e-21)
(0.0002298357217094195 1.466019851250361e-07 2.05911647403163e-19)
(0.000273554257888897 1.247116862994012e-07 4.119691451505241e-20)
(0.0003141679711489359 1.046052588673103e-07 6.705209449575539e-20)
(0.0003517205612538356 8.606380825894333e-08 2.46517417876186e-19)
(0.000386272838476938 6.888395386047336e-08 -7.523882338828522e-20)
(0.0004178969826187364 5.286701514015557e-08 -1.383866908136747e-19)
(0.0004466634028193242 3.784037776041013e-08 -6.48374146554611e-20)
(0.0004726447670919284 2.358916771212909e-08 -1.449425510120065e-20)
(0.0004958901158277057 9.966679040975589e-09 2.859426381841144e-19)
(0.0005164545809019965 -3.289082819602636e-09 3.234699666724007e-19)
(0.0005343303675636354 -1.624430530525714e-08 -8.646612997753526e-20)
(0.0005495561298713279 -2.935441240628605e-08 -2.633067391769906e-20)
(0.0005619952163041332 -4.243803363183148e-08 1.544687012741403e-19)
(0.0005717225054838857 -5.6540988409119e-08 -1.371465153229142e-19)
(0.0005782727661089946 -7.065742403570384e-08 1.344096503145515e-19)
(0.000581995340451793 -8.768198948515827e-08 2.401331423844056e-19)
(0.0005814559246287232 -1.039768050258487e-07 -1.03079973503494e-19)
(0.0005782068722883238 -1.285225343593991e-07 1.09243899417104e-19)
(0.0005677780420171232 -1.486281051101681e-07 -9.008196836267909e-20)
(0.0005560915553773412 -1.912496586898484e-07 4.295992461008406e-20)
(0.000527343512541336 -2.155463358571352e-07 -1.454523926182483e-19)
(0.0005014598375990861 -3.037745569374079e-07 -1.110553422636841e-19)
(0.0004128709092983433 2.049203844158111e-06 8.929293244523787e-20)
(0.0003400203923639149 4.162375338109542e-05 6.532716057707456e-19)
(0.0003644861835685029 0.0001011764578084646 -2.365256979101928e-18)
(0.0003972866182273373 0.0001683927098130271 4.88244543242457e-19)
(0.0004482376099618861 0.0002504426152358598 6.204247622160806e-19)
(0.0005254240415046525 0.0003498100473922894 7.922710830780609e-19)
(0.0006264127982572186 0.000458272676660924 1.734512358589395e-18)
(0.000745437620201128 0.0005670624640310954 -9.408720381813648e-19)
(0.0008562459557419592 0.0006604815502175587 -1.655950530652571e-18)
(0.0009593425724260654 0.0007577029628695792 1.951744963091256e-18)
(0.001074036438621923 0.000878728103058599 -1.420142521838941e-18)
(0.001285728295556536 0.001081146684811087 2.136508095310091e-18)
(0.001720299251296345 0.001374012147647198 1.555488239986052e-19)
(0.002524971736133325 0.001685370028547494 -3.445451682384561e-20)
(0.003504195469749956 0.001468379592073777 -3.460559874480376e-19)
(0.00308049355689965 0.0004257260813451492 -4.176008724001537e-19)
(0.001920138787695745 9.918624233025153e-06 -3.720868542592575e-20)
(0.005813356251406555 -3.275834466813403e-05 2.985544214945966e-19)
(0.005814602089640803 -0.0007959818431390814 9.756047350239041e-19)
(0.002668643637776794 -0.00111807334248295 -2.36169348620539e-18)
(-4.599805884290209e-06 1.639609927163262e-05 -2.488524009809993e-18)
(-0.0005030516560050542 0.000412135197276842 -3.136642385709409e-19)
(-0.0004814586269673201 0.000411431812166503 -3.12028260447119e-19)
(-0.0005339703845711833 0.000441739537265292 1.91074012344702e-19)
(-0.0005553576330563517 0.0004430404104609501 1.029924873813476e-19)
(-0.0006059688223954395 0.0004717983546845163 1.18277477981075e-19)
(-0.0006432584817283614 0.0004938839993648209 -1.976626407429746e-20)
(-0.0007038180218309342 0.000518484385786316 -5.650527761403209e-20)
(-0.0007801363578967179 0.0005211687716415004 -1.447841450042377e-19)
(-0.0008808702661863643 0.0004914048824070152 -2.848398924401567e-19)
(-0.0009912124381253737 0.0004179088619749368 -3.381550710951782e-20)
(-0.001088625998712498 0.0003001485021158543 1.541710708029683e-19)
(-0.001173647575090755 0.000143914865762643 2.663147158039254e-20)
(-0.001301779765547315 9.437021839726653e-06 -2.217812943471623e-20)
(-0.001378266453892224 5.926759471995209e-07 -8.337247486866768e-20)
(-0.001330678586827431 -7.726944274032712e-07 1.992742952859232e-19)
(-0.001230620091132707 -1.492447832162412e-06 5.185976405472053e-20)
(-0.001094935720087417 -1.974447428006905e-06 2.662976774065069e-19)
(-0.0009372970035903655 -2.280343916216222e-06 3.481436272140801e-19)
(-0.0007664852584711663 -2.463987912535065e-06 4.310091203966155e-19)
(-0.0005888967532266089 -2.554081996414785e-06 1.23296576738981e-19)
(-0.0004093776684193753 -2.574704631160895e-06 -3.09078046106141e-20)
(-0.0002313601105094924 -2.543829704714443e-06 -2.358429871013666e-19)
(-5.740616222175338e-05 -2.475882396688706e-06 -3.636068193252592e-19)
(0.0001107342929266953 -2.382175891359039e-06 5.914498562278498e-19)
(0.0002718336629254998 -2.271010862346271e-06 1.762641435364197e-19)
(0.0004250958668765221 -2.148505232170239e-06 3.275903227264722e-19)
(0.0005700150888925469 -2.019346033897143e-06 -2.608850047691922e-20)
(0.0007063264460905723 -1.887041292400232e-06 3.58172739987985e-19)
(0.0008339305569517248 -1.754116915905513e-06 1.209117541242773e-19)
(0.0009528474910437564 -1.622348737644623e-06 1.988862142451051e-19)
(0.001063181730093564 -1.492897611608384e-06 4.722615631573917e-19)
(0.00116508237444368 -1.36644452501157e-06 -2.259564269816424e-19)
(0.001258728579579881 -1.243281520816664e-06 -1.585748846958371e-19)
(0.001344295013048944 -1.123381015070676e-06 6.095103968964181e-20)
(0.00142196198191717 -1.006428446477325e-06 3.428120787699655e-19)
(0.001491846581062657 -8.918746911990228e-07 6.99865872337657e-19)
(0.001554079288123164 -7.789125121291966e-07 9.377372171252436e-19)
(0.001608622907285938 -6.665223096987228e-07 -2.643517271505584e-19)
(0.001655554593221512 -5.533119444003463e-07 -7.984002554365566e-20)
(0.001694487837197433 -4.376387243697758e-07 4.541548881661411e-19)
(0.001725572472521167 -3.171721855834601e-07 -8.938049364682352e-19)
(0.001747540166476048 -1.892831719174164e-07 -7.377983279240705e-20)
(0.00176121080937496 -4.956718389033146e-08 3.563882917595462e-19)
(0.001762737876348844 1.061913633482903e-07 1.265875487431368e-19)
(0.00175595558356841 2.848782776368813e-07 4.22953945679385e-19)
(0.001728998155240308 4.995421117612599e-07 -2.644920594300428e-19)
(0.001696861502858256 7.899851952103312e-07 1.354103105450357e-19)
(0.001617712030327649 1.228936739775585e-06 -4.352334577641526e-19)
(0.001542478177183075 2.147662558868246e-06 -3.592273451448587e-19)
(0.001300042564457263 1.104078944038551e-05 2.14638276678175e-19)
(0.001092227684491611 0.0001330203292228086 8.794135591386977e-19)
(0.001147032602574961 0.0003135344902468605 -4.53023714445268e-18)
(0.001238781498207034 0.0005184280961831263 1.476630942679641e-18)
(0.0013838929864912 0.0007666531129089531 -2.269413549237214e-18)
(0.00160473940786634 0.001064925403723079 5.480426035826451e-18)
(0.001896004644425719 0.001389007512814448 2.489444803281457e-18)
(0.002241556937323655 0.001713505580884707 -2.956742378693306e-18)
(0.002570733965848894 0.001995300639625948 -4.151615258117256e-19)
(0.002878984263951537 0.002290291055066615 3.887898900323754e-18)
(0.003217366120811471 0.002654825424897566 -1.054383242135766e-18)
(0.003811427446175061 0.003245896242380988 2.335614474718989e-18)
(0.004998183836919678 0.004065772639479393 -3.865480791448828e-19)
(0.007140643775380208 0.00487834393416648 -1.149393542257236e-19)
(0.009777702720360349 0.004196634784002563 -9.206305986746957e-20)
(0.0089819014971401 0.001277921480167006 -1.222339113761695e-18)
(0.006014277974478024 4.657162402863425e-05 -4.306671996344415e-19)
(0.009043576295352539 -4.854817860435447e-05 3.341311382382458e-19)
(0.009061968902839484 -0.00120998609884037 4.237000235731682e-19)
(0.004600330034224747 -0.001867661998780556 -2.922332355298082e-18)
(0.0003128994950592084 -0.0001522414855268638 -1.563464659759498e-18)
(-0.0007187367911270468 0.0005991389340364437 -2.197739504076466e-19)
(-0.0007571140557585727 0.0006490485473942251 -5.758270059968634e-19)
(-0.0008614333515520485 0.0007142514249406075 5.736815920355038e-20)
(-0.0009086945954940648 0.0007263012166585252 1.751734907203352e-19)
(-0.0009987148996521765 0.0007789992133029833 2.415359787828868e-20)
(-0.0010657065809557 0.0008196957513178136 -2.081894771684351e-20)
(-0.00116479866950157 0.0008598971931698488 -1.714693528536522e-19)
(-0.001282391816161438 0.0008588277055083615 -2.066732989196284e-19)
(-0.001429338297544754 0.0007996243995924965 -1.596653338575305e-20)
(-0.001581388298313777 0.0006686575617038269 -2.327730403993866e-20)
(-0.00170699828540109 0.0004720201665890378 1.335982529222296e-19)
(-0.001811285558400663 0.000223819575272316 -1.408198163853635e-19)
(-0.001962505177325461 1.615019087692788e-05 -3.209085951684354e-20)
(-0.002028213612160652 3.99221601500385e-07 -2.365026821044102e-19)
(-0.001929577623483779 -3.88625962743043e-06 1.303874084162129e-19)
(-0.001763893749159312 -6.059539152070759e-06 4.635408670072919e-20)
(-0.001553545476899461 -7.476368528662499e-06 1.749547212567794e-19)
(-0.001316744678123527 -8.337635259625246e-06 3.944300300376736e-19)
(-0.001064844997335224 -8.824410095085847e-06 2.454852595712452e-19)
(-0.0008059154906845192 -9.032037039834159e-06 1.761975706088285e-19)
(-0.0005459699371942632 -9.035410516112876e-06 1.234540779485025e-19)
(-0.0002891878992868949 -8.890076759413173e-06 -1.709374662129997e-19)
(-3.865669043946613e-05 -8.638312822419333e-06 -2.672502447364274e-19)
(0.0002035417884445001 -8.312618836447415e-06 5.21915916893643e-19)
(0.0004359438762923041 -7.936775263410594e-06 3.532468127989174e-19)
(0.0006576043286583429 -7.528796221709119e-06 2.023590710948656e-19)
(0.0008679202313177271 -7.101955231214891e-06 1.426542721496634e-19)
(0.001066574359874096 -6.666170462611559e-06 4.702852444948544e-19)
(0.001253442110900644 -6.228565275460067e-06 -3.396783983788003e-21)
(0.001428536462902312 -5.794139616331806e-06 2.951247978110781e-19)
(0.00159196735685716 -5.366106641026073e-06 6.249735667399652e-19)
(0.001743892110644269 -4.946350784407268e-06 -1.638394188556289e-19)
(0.001884499710951854 -4.535555428730759e-06 -1.724435440592134e-19)
(0.002013966936414538 -4.133566715700814e-06 1.541900046899503e-19)
(0.002132473964994396 -3.739163467572765e-06 -1.543104634765902e-19)
(0.002240111319600805 -3.350737055534951e-06 5.306758831035597e-19)
(0.002336984368232025 -2.965158834348409e-06 5.451626452233239e-19)
(0.002422966328636603 -2.579736057600159e-06 -4.050785392464e-19)
(0.002498080085882431 -2.188327910678774e-06 -1.097914828157675e-19)
(0.002561708573008701 -1.787917739381642e-06 6.835750213246884e-19)
(0.002613953667024562 -1.365490147258447e-06 -5.99871291168187e-19)
(0.002652962033039459 -9.207020666500694e-07 -5.334692375862734e-19)
(0.002679707121690893 -4.212538239208811e-07 4.896335734755987e-19)
(0.002688740025108115 1.183784407310028e-07 -1.136821641899542e-19)
(0.002685004707213389 7.852146795418579e-07 2.019674659491556e-19)
(0.002651728103391624 1.516211292731074e-06 -3.986214386091616e-19)
(0.002608961831390885 2.653243362374118e-06 2.315934065584691e-19)
(0.002498359972093726 4.059903621349916e-06 -2.566867673403212e-19)
(0.002388967760179562 7.489460741259646e-06 -6.318133184653698e-19)
(0.00204660441258607 2.35638627732619e-05 -3.704199809344833e-19)
(0.001738715656354212 0.0002132742182654584 5.255619250986628e-19)
(0.001800650598138542 0.0004892754745382053 -1.889781181096282e-18)
(0.001935473636005845 0.0008049873008317348 2.604328993949772e-18)
(0.002155560660385776 0.001186657473354104 -2.81957090468078e-18)
(0.002492090254700239 0.001643735618435148 6.568822178785383e-18)
(0.00293742155763146 0.002140076107681453 -1.212161737124795e-18)
(0.003467926967407764 0.002638814778068011 -4.505746035445344e-18)
(0.003983613901037907 0.003080650462308539 8.21537508471856e-19)
(0.004475040153244752 0.003548626688286687 2.023992249355919e-18)
(0.00501306611542239 0.004121897837368107 7.537614878144197e-19)
(0.005916891221416379 0.005015035944437655 3.615746306440865e-18)
(0.007660058523164904 0.006193694471769414 -1.32475069884847e-19)
(0.01072954541138644 0.007284537602253251 -1.389760502602401e-19)
(0.0145512646878182 0.006234082908114834 -7.289028880461873e-19)
(0.01378209332984518 0.002000300917594199 -1.922485590349797e-18)
(0.009642365486451497 0.0001027873671296867 -6.666035310217815e-19)
(0.01155508709400218 -5.518719574489398e-05 5.221776645197482e-20)
(0.01155414324334284 -0.001501427628408491 4.897025865864876e-19)
(0.006306913800880855 -0.0024810849293635 -1.96821762459127e-18)
(0.000794459567380005 -0.0004026012007484116 -1.640076955378624e-18)
(-0.0007857163551459844 0.0006738655625491534 -1.479919173186638e-19)
(-0.0009277334255603564 0.0007981676965343874 -4.529897142841223e-19)
(-0.001085129258448952 0.0009016797339338377 3.511533700946585e-19)
(-0.0011612486812918 0.0009299651342778402 1.268698345118793e-19)
(-0.001286347333446148 0.001005330067999642 -6.868823848290943e-20)
(-0.001380393173032144 0.001063827562723782 -1.376128596379617e-20)
(-0.001507810599155858 0.001115740968124069 -1.873777086011974e-19)
(-0.001649378522742244 0.001107677411002445 -1.768381013841634e-19)
(-0.001817016873193373 0.001019810279335065 1.185418960451209e-19)
(-0.001982674803449778 0.0008411937899184908 2.574856187764708e-20)
(-0.002112959794797034 0.0005864408149707998 1.225144099917491e-19)
(-0.00221713241342344 0.0002764796874865182 -2.467290432553206e-19)
(-0.002362426325361316 2.159820668322603e-05 -3.517515878509213e-20)
(-0.002401137013932092 -7.555379436018422e-07 -1.270765890882093e-19)
(-0.002262536383877654 -8.849330624680821e-06 1.62670411237227e-19)
(-0.00205239945618122 -1.286184106280872e-05 -1.49505973137596e-20)
(-0.00179499270904049 -1.543373398029216e-05 1.215241416080349e-19)
(-0.001510281843329101 -1.695545898975969e-05 3.161343674614643e-19)
(-0.001210543492079263 -1.778223858505587e-05 2.71775531570068e-19)
(-0.0009043899941288231 -1.809920083487354e-05 1.044970325102904e-19)
(-0.0005981856612460189 -1.804698334563707e-05 9.105901459444226e-20)
(-0.0002963028942255133 -1.77291280277645e-05 -1.363563414165462e-19)
(-1.947297356002947e-06 -1.722238138977247e-05 -3.173464890342648e-19)
(0.0002827391675628764 -1.65852936168835e-05 7.473052206125116e-19)
(0.0005562528456001276 -1.585986829170232e-05 2.576384967494397e-19)
(0.0008176305289074624 -1.507784832085786e-05 2.269551879054488e-19)
(0.001066259935870266 -1.426248520868199e-05 4.614442270595141e-19)
(0.001301821383942907 -1.343110726948579e-05 7.580441766678285e-19)
(0.001524188578446946 -1.259601650923043e-05 -8.302655234717511e-20)
(0.001733370867434471 -1.176575994854945e-05 3.598440447601202e-19)
(0.001929471783659654 -1.094573300536904e-05 5.018354364201877e-19)
(0.002112635789749313 -1.013900477867793e-05 -1.436987631873546e-19)
(0.002283033032974398 -9.346438118749276e-06 -1.818674265341263e-19)
(0.002440812122804113 -8.567477636496467e-06 4.314798915514737e-19)
(0.002586118559056324 -7.799423527749668e-06 -2.330832063419757e-19)
(0.002718990713517107 -7.039145118905526e-06 7.239631783856291e-19)
(0.002839476682494626 -6.280044753843537e-06 5.850265932620507e-19)
(0.002947357130890224 -5.517272896223792e-06 -5.08556934132996e-19)
(0.003042570594908739 -4.737417735321615e-06 -1.101870883993662e-19)
(0.0031243265595789 -3.936259514889048e-06 4.200050980317257e-19)
(0.003192624723686317 -3.083722367043703e-06 -7.288312792701594e-19)
(0.003245247062606163 -2.185630734110903e-06 -9.886213801608261e-19)
(0.003283121706733555 -1.163264357562878e-06 -8.918482918776771e-20)
(0.003299907117119766 -6.828908872947352e-08 1.805339552591022e-20)
(0.003300879683703346 1.326722925442637e-06 1.461430475476696e-19)
(0.003266589841058095 2.809185431654112e-06 -4.752461755886858e-19)
(0.003219099078867452 5.233629537395968e-06 3.477921601816138e-19)
(0.003091711347022181 8.006433115713727e-06 -1.438535857343644e-19)
(0.002961431339627128 1.512985929583455e-05 1.722806018733414e-20)
(0.002566113360886569 3.812251701299468e-05 -8.655320535747225e-19)
(0.002197464794293464 0.0002725468800780439 7.22119816736305e-19)
(0.002253127240675947 0.0006091385183138859 -9.157295583536785e-19)
(0.002411947442717391 0.0009970717361046789 2.6714582648313e-18)
(0.002679537215998449 0.001465280373144245 -2.074956847533457e-18)
(0.003091388924393331 0.002024871760013839 5.830333773265864e-18)
(0.00363962753297343 0.00263387155744012 -8.07262140697136e-19)
(0.00429710259532221 0.003250460223821341 -3.818139221947272e-18)
(0.004949297582929549 0.003808787946508208 7.743599874804483e-20)
(0.005582218919855799 0.004407465934118338 1.759471989644129e-18)
(0.006277490987591871 0.005136758142329451 9.368835786434959e-19)
(0.007407987155039613 0.006237638603631907 2.656780985326563e-18)
(0.009531854138470026 0.007640164912172827 -1.436217581140441e-19)
(0.01320719914097356 0.008877924918443922 -7.289188196664669e-20)
(0.01787090944738529 0.007611868414163685 -5.088148203114804e-19)
(0.0174212433474684 0.002567435881180719 -2.520225941956176e-18)
(0.01261590511289594 0.0001743338668750055 -9.611450672982594e-19)
(0.01369927690579235 -5.188316841001402e-05 -3.140080887835117e-20)
(0.01361612043553057 -0.001712090618435885 1.213802447826433e-19)
(0.007882505351820177 -0.002988837180187502 -1.64767291885598e-18)
(0.001393679430659902 -0.0006917768279903972 -1.199916152684645e-18)
(-0.0007357351377337531 0.0006687702565657297 -3.658819920317755e-19)
(-0.001007617041902442 0.0008738577243931098 -5.947230185568361e-19)
(-0.001214298045290927 0.001013252234514136 4.224961279327494e-19)
(-0.001318147948356186 0.001059239488388132 1.950980847356738e-19)
(-0.001471507199516953 0.001153787135030829 -4.515008205139287e-20)
(-0.001588107305333556 0.001227657578054542 -9.257097551358988e-21)
(-0.001736430988360747 0.001289252587993082 -1.954956708697546e-19)
(-0.001894207701890833 0.001276848821575743 -1.643108814591942e-19)
(-0.002074086182824119 0.00116891078331755 1.260164587060942e-19)
(-0.002246751434050735 0.0009571959810185824 -5.98740107674274e-23)
(-0.002378620957120057 0.0006629836367832446 1.032283698810925e-19)
(-0.002480443232991605 0.000312252981969056 -2.245918607319837e-19)
(-0.002612728361094285 2.597228429979719e-05 -3.532030060987787e-20)
(-0.00262514924453674 -3.296735515522193e-06 -1.1997718357616e-19)
(-0.002458067814830903 -1.609829078925413e-05 1.841874676296792e-19)
(-0.002217775335677829 -2.23838408479207e-05 -1.719024395220165e-20)
(-0.001929270274349005 -2.637365265848393e-05 8.58870390244557e-20)
(-0.001613279327062609 -2.869070667073553e-05 1.913152973838582e-19)
(-0.001282509451855985 -2.991150149575801e-05 2.192078307190715e-19)
(-0.0009458151468311001 -3.033535488604083e-05 -6.811797923732318e-21)
(-0.0006097121812658733 -3.018558979636645e-05 2.26377979680681e-20)
(-0.0002786508856913813 -2.962619249720203e-05 -1.166074408748085e-19)
(4.412224496352288e-05 -2.877694853126219e-05 -3.449760138436655e-19)
(0.0003564469308226488 -2.772875037899821e-05 6.689500688786386e-19)
(0.0006568099931417799 -2.654592187924174e-05 2.064256528837501e-19)
(0.0009442482631720785 -2.527700633471064e-05 2.239844798318233e-19)
(0.001218152018270951 -2.395743661795952e-05 5.448988073261791e-19)
(0.00147820515639311 -2.261348018044981e-05 8.196295774984653e-19)
(0.001724282902529877 -2.126358044763403e-05 1.246608449809332e-21)
(0.001956392433729577 -1.992044274014432e-05 4.144053072796302e-19)
(0.002174631097456285 -1.8591871328562e-05 4.223566258622289e-19)
(0.002379131021079396 -1.728212327699706e-05 -1.570157267528671e-19)
(0.002570043911800705 -1.599198766953074e-05 -1.917558668692701e-19)
(0.002747492357832204 -1.472012634697117e-05 1.306277755528775e-19)
(0.002911588930622999 -1.346165210660586e-05 -3.127418917036826e-19)
(0.003062327196615215 -1.221123174457702e-05 3.734750700505085e-19)
(0.003199702487576204 -1.09574117574745e-05 4.297696825142715e-19)
(0.003323422543311924 -9.692367587105426e-06 -4.502010241889888e-19)
(0.00343334704889417 -8.392595451988127e-06 -2.513749475554398e-19)
(0.003528562737482728 -7.052363205578115e-06 2.378337676747188e-19)
(0.003608959201618087 -5.617837780212514e-06 -6.544787864831393e-19)
(0.003672091147097788 -4.103783626724188e-06 -5.760191753863659e-19)
(0.003718756115438368 -2.366547691412528e-06 -9.705617270646256e-20)
(0.003742118847575168 -5.106754072853812e-07 1.254619522921649e-19)
(0.003747397646329927 1.891371545485202e-06 1.485203636977662e-19)
(0.003713764185991745 4.413430024525528e-06 -5.17043772192088e-19)
(0.003663677100809957 8.624224145893229e-06 1.659537524351031e-19)
(0.003526585518969224 1.325566160010174e-05 1.228697406778838e-19)
(0.003381934737733684 2.531763537501416e-05 3.927679792738959e-19)
(0.002958134835796993 5.569329858165376e-05 -4.554561223342815e-19)
(0.002552059664697007 0.0003209537538180368 1.094188332033345e-18)
(0.002596347384662617 0.0006979477234222633 2.355295860983992e-19)
(0.002767969622990271 0.001135849483948359 1.704032427750392e-18)
(0.003066086844922745 0.001662982042705574 -2.485636131643929e-18)
(0.003527822082294601 0.002291037277051963 3.454685692571583e-18)
(0.004146060936900685 0.002975514308129686 -6.84482731184198e-21)
(0.00489189171166263 0.003673290543341798 -2.420193333579142e-18)
(0.005644894083459247 0.00431761906755614 -2.979697314558912e-19)
(0.006387386648475449 0.005015936197842919 1.1455183298373e-18)
(0.007208317117846766 0.00586332222786465 1.061372692849463e-18)
(0.008510906875608085 0.007108673783350199 1.969775398165831e-18)
(0.01090616566854803 0.008648700351151388 6.146229278922518e-19)
(0.01497600035117365 0.009942482138072722 2.387945459072952e-20)
(0.02020526948170476 0.008537587845227354 -6.406120933686087e-19)
(0.02026248963740603 0.003034188686181454 -2.262980766022053e-18)
(0.01520964739875599 0.0002672914567698683 -6.772946399968885e-19)
(0.01564009269787061 -3.619153079920439e-05 -6.281230497573026e-20)
(0.01542629078815172 -0.001862509400286338 3.364649428050764e-19)
(0.009422780602730732 -0.003420801451736604 -9.134108633569143e-19)
(0.002126169443888742 -0.001016841246457146 -7.756634793765967e-19)
(-0.0005888382178440499 0.0006075734742425457 -9.610889054048718e-19)
(-0.001024196273836913 0.0009017360388860065 -7.236731004677275e-19)
(-0.001281051154853134 0.001076306712047869 2.816045514977507e-19)
(-0.001412425733877369 0.001141007159058252 1.751861279849567e-19)
(-0.001589590602935928 0.001252388182205228 6.611562208161768e-22)
(-0.001725579432288111 0.001339794789683523 -5.778581488472999e-21)
(-0.001890465895130809 0.001410098030153709 -1.660028840222091e-19)
(-0.0020612218403608 0.001396225171665389 -1.667827110050291e-19)
(-0.002250749636212372 0.001275102733332258 1.156899827165355e-19)
(-0.002429228545660188 0.001040199146973195 -4.772809375517788e-20)
(-0.002563030924088356 0.0007179275821996947 8.583708566808569e-20)
(-0.00266244977285687 0.0003385281058772232 -1.806900731328593e-19)
(-0.002778996577701623 2.952538973855635e-05 -7.071140037666238e-20)
(-0.002766872283686642 -7.551227632142912e-06 -8.72378230119749e-20)
(-0.002578177426743645 -2.610273756865684e-05 1.357997302015194e-19)
(-0.002315652943031229 -3.519961884658254e-05 -7.523326023089463e-20)
(-0.002004585993499263 -4.093789428599201e-05 1.196346527380352e-19)
(-0.001666000371913926 -4.422550305231934e-05 1.547527205131825e-19)
(-0.001312836293778182 -4.591534373697061e-05 1.218109403870463e-19)
(-0.0009540792485873711 -4.645045330130662e-05 -9.878996762095937e-20)
(-0.0005963298356447485 -4.615761731489084e-05 -3.824329577124288e-20)
(-0.0002440862293099255 -4.527655519303871e-05 -1.041827631204225e-19)
(9.938069544790039e-05 -4.39806753855569e-05 -3.725808041739981e-19)
(0.0004318948185561918 -4.240094589202532e-05 5.186121554668765e-19)
(0.0007519347170020276 -4.062942589431872e-05 1.781474491199568e-19)
(0.001058535246988652 -3.873562168499399e-05 3.090292251445092e-19)
(0.001351087024743842 -3.67700061968888e-05 5.134327990089723e-19)
(0.001629274833582127 -3.476981580164718e-05 8.854712817900865e-19)
(0.001892973551504334 -3.276097093861329e-05 5.694233001595516e-20)
(0.002142187390663085 -3.076114026615934e-05 4.693832069081014e-19)
(0.002377007853546698 -2.878091569697549e-05 3.66418294091423e-19)
(0.002597556788250202 -2.682580322006993e-05 1.195664066880176e-20)
(0.002803970808635653 -2.489624846608766e-05 -2.051166182611072e-19)
(0.002996351995171295 -2.298966655225799e-05 1.244409792599552e-19)
(0.003174786296530839 -2.10981191588013e-05 -2.732455697101993e-19)
(0.00333923282322047 -1.921318801129421e-05 8.86952189732012e-20)
(0.003489643613989009 -1.731693318362546e-05 3.022680751907209e-19)
(0.00362567227096543 -1.539737089101734e-05 -1.661452064860599e-19)
(0.00374711080626253 -1.341770135153867e-05 9.95543214338459e-20)
(0.003852961060799123 -1.13696984170392e-05 2.219861713513685e-19)
(0.003943006657069646 -9.168492668691262e-06 -5.581192974934141e-19)
(0.004014664502746491 -6.839313604599073e-06 -3.819883111091737e-19)
(0.004068560839077989 -4.154145230963118e-06 4.340093570186834e-19)
(0.004097612412505361 -1.283368229163566e-06 -5.615303410728401e-20)
(0.004106751377191607 2.461636927108531e-06 -1.342617463360652e-19)
(0.00407456494209091 6.385721278619029e-06 -5.726774857022762e-19)
(0.004022962788828125 1.297416064063581e-05 5.99375507553916e-19)
(0.003880212160630839 2.009357630678221e-05 3.374522207437259e-19)
(0.003724935182226134 3.849466271220036e-05 5.92265880062502e-19)
(0.003286784204415651 7.734068386375468e-05 -4.507636830051449e-19)
(0.002857636301794406 0.0003654793291183856 1.638600229115253e-18)
(0.002888482476875445 0.0007714481120620117 4.577391473780128e-19)
(0.003066758898339795 0.00124717266147208 1.434335268880785e-18)
(0.003386150796476514 0.001818044441222311 -1.628083065519609e-18)
(0.003883460428528232 0.002495287720299078 2.486349285215447e-18)
(0.004552226803331356 0.003233273509281639 3.690934484265899e-19)
(0.005362048562476657 0.003989321341768928 -2.475914292202685e-18)
(0.006191625414573181 0.004699215959693754 -1.248130580634774e-18)
(0.007021041502571256 0.005475565580721719 3.245792977526385e-19)
(0.007945570740016082 0.006414341510643352 1.194866322137117e-18)
(0.009383551653604875 0.00775901447096033 2.078828690622707e-18)
(0.01197326806786027 0.009370347611314877 4.905946846860098e-19)
(0.01627758274836928 0.01064061043351165 1.157516063869876e-19)
(0.02180992563161559 0.009116236451336412 -1.838548235661964e-19)
(0.02243120020802842 0.003413713032849323 -1.410080546222714e-18)
(0.01751177157435102 0.0003833645062244737 -7.87889316380394e-19)
(0.01742644231189733 -5.941021085555376e-06 -4.614793811749947e-19)
(0.0170636826650016 -0.001960142021230053 2.613665438083724e-19)
(0.01097290383972017 -0.003786493371469402 -1.169318666142861e-19)
(0.003021031188620669 -0.001381742953123738 -7.601691339457819e-19)
(-0.0003375710716772407 0.0004950939250259477 -8.74592642946681e-19)
(-0.0009869584544064821 0.0008935655675196771 -6.964347471860206e-19)
(-0.001301940996002639 0.001105740144379281 4.914118837180737e-20)
(-0.001462979506027484 0.001191090643757264 2.183680949028465e-19)
(-0.001662081844605352 0.001318456239683243 4.57114141264241e-21)